# LLDB iterates through these in reverse order to discover summaries/synthetics that means the top
# of the list can be "overwritten" by items lower on the list. Be careful when reordering items.

# Forces test-compliant formatting to all other types
type synthetic add -l lldb_lookup.synthetic_lookup -x ".*" --category Rust
# Std String
type synthetic add -l lldb_lookup.StdStringSyntheticProvider -x "^(alloc::([a-z_]+::)+)String$" --category Rust
type summary add -F lldb_lookup.StdStringSummaryProvider -e -x -h "^(alloc::([a-z_]+::)+)String$" --category Rust

# Std str
type synthetic add -l lldb_lookup.StdSliceSyntheticProvider -x "^&(mut )?str$" --category Rust
type summary add -F lldb_lookup.StdStrSummaryProvider -e -x -h "^&(mut )?str$" --category Rust

## MSVC
type synthetic add -l lldb_lookup.MSVCStrSyntheticProvider -x "^ref(_mut)?\$<str\$>$" --category Rust
type summary add -F lldb_lookup.StdStrSummaryProvider -e -h -x "^ref(_mut)?\$<str\$>$" --category Rust

# Array/Slice
type synthetic add -l lldb_lookup.StdSliceSyntheticProvider -x "^&(mut )?\\[.+\\]$" --category Rust
type summary add -F lldb_lookup.SizeSummaryProvider -e -x -h "^&(mut )?\\[.+\\]$" --category Rust

## MSVC
type synthetic add -l lldb_lookup.MSVCStdSliceSyntheticProvider -x "^ref(_mut)?\$<slice2\$<.+> >" --category Rust
type summary add -F lldb_lookup.StdSliceSummaryProvider -e -x -h "^ref(_mut)?\$<slice2\$<.+> >" --category Rust

# OsString
type summary add -F lldb_lookup.StdOsStringSummaryProvider -e -x -h "^(std::ffi::([a-z_]+::)+)OsString$" --category Rust

# Vec
type synthetic add -l lldb_lookup.StdVecSyntheticProvider -x "^(alloc::([a-z_]+::)+)Vec<.+>$" --category Rust
type summary add -F lldb_lookup.SizeSummaryProvider -e -x -h "^(alloc::([a-z_]+::)+)Vec<.+>$" --category Rust

# VecDeque
type synthetic add -l lldb_lookup.StdVecDequeSyntheticProvider -x "^(alloc::([a-z_]+::)+)VecDeque<.+>$" --category Rust
type summary add -F lldb_lookup.SizeSummaryProvider -e -x -h "^(alloc::([a-z_]+::)+)VecDeque<.+>$" --category Rust

# HashMap
type synthetic add -l lldb_lookup.classify_hashmap -x "^(std::collections::([a-z_]+::)+)HashMap<.+>$" --category Rust
type summary add -F lldb_lookup.SizeSummaryProvider -e -x -h "^(std::collections::([a-z_]+::)+)HashMap<.+>$" --category Rust

# HashSet
type synthetic add -l lldb_lookup.classify_hashset -x "^(std::collections::([a-z_]+::)+)HashSet<.+>$" --category Rust
type summary add -F lldb_lookup.SizeSummaryProvider -e -x -h "^(std::collections::([a-z_]+::)+)HashSet<.+>$" --category Rust

# Rc
type synthetic add -l lldb_lookup.StdRcSyntheticProvider -x "^(alloc::([a-z_]+::)+)Rc<.+>$" --category Rust
type summary add -F lldb_lookup.StdRcSummaryProvider -e -x -h "^(alloc::([a-z_]+::)+)Rc<.+>$" --category Rust

# Arc
type synthetic add -l lldb_lookup.arc_synthetic -x "^(alloc::([a-z_]+::)+)Arc<.+>$" --category Rust
type summary add -F lldb_lookup.StdRcSummaryProvider -e -x -h "^(alloc::([a-z_]+::)+)Arc<.+>$" --category Rust

# Cell
type synthetic add -l lldb_lookup.StdCellSyntheticProvider -x "^(core::([a-z_]+::)+)Cell<.+>$" --category Rust

# RefCell
type synthetic add -l lldb_lookup.StdRefSyntheticProvider -x "^(core::([a-z_]+::)+)Ref(Cell|Mut)?<.+>$" --category Rust
type summary add -F lldb_lookup.StdRefSummaryProvider -e -x -h "^(core::([a-z_]+::)+)Ref(Cell|Mut)?<.+>$" --category Rust

# NonZero
type summary add -F lldb_lookup.StdNonZeroNumberSummaryProvider -e -x -h "^(core::([a-z_]+::)+)NonZero(<.+>|I\d{0,3}|U\d{0,3})$" --category Rust

# PathBuf
type summary add -F lldb_lookup.StdPathBufSummaryProvider -e -x -h "^(std::([a-z_]+::)+)PathBuf$" --category Rust

# Path
type summary add -F lldb_lookup.StdPathSummaryProvider -e -x -h "^&(mut )?(std::([a-z_]+::)+)Path$" --category Rust

# Enum
# type summary add -F lldb_lookup.ClangEncodedEnumSummaryProvider -e -h "lldb_lookup.is_sum_type_enum" --recognizer-function --category Rust
## MSVC
type synthetic add -l lldb_lookup.MSVCEnumSyntheticProvider -x "^enum2\$<.+>$" --category Rust
type summary add -F lldb_lookup.MSVCEnumSummaryProvider -e -x -h "^enum2\$<.+>$" --category Rust

## MSVC Variants
type synthetic add -l lldb_lookup.synthetic_lookup -x "^enum2\$<.+>::.*$" --category Rust

# Tuple
type synthetic add -l lldb_lookup.TupleSyntheticProvider -x "^\(.*\)$" --category Rust
type summary add -F lldb_lookup.TupleSummaryProvider -x "^\(.*\)$" --category Rust

## MSVC
type synthetic add -l lldb_lookup.MSVCTupleSyntheticProvider -x "^tuple\$<.+>$" --category Rust
type summary add -F lldb_lookup.TupleSummaryProvider -e -x -h "^tuple\$<.+>$" --category Rust

type category enable Rust
